#BIOSYM hessian 1
@Type: Hessian Update
@Units
 distance: 	A
 energy: 	Kcal/Mol
#header
@natom 11

#label
R1      G2      B3      B4      I5      C6      B7      I8      I9      R10     R11

#element
Rb Ge Br Br I  Cs Br I  I  Rb Rb

#matrix
33
 2.480999888641E+01
 1.497520737828E+01 2.686628802595E+01
 -1.365101983339E+01 5.577199990689E+00 2.104651023692E+01
 8.480267347369E+00 -5.476367122608E+00 -5.174019223112E+00 6.677753550982E+01
 -4.390577800589E-01 1.202712596577E+01 -7.892835239267E-01 -1.656647823094E+01 1.297871498918E+02
 8.267238961915E-01 -8.323336585088E-01 -4.171774637350E+00 -9.082615525169E+00 -2.079594456837E+01 1.317901422086E+02
 -2.324738366153E+00 1.759125772549E+00 -1.215998813731E-01 -2.063944146293E+01 3.189117985804E+01 -6.339242305567E+00 2.906403901841E+01
 2.343186678095E+00 -7.260910230291E+00 2.438490157472E+00 2.457156012668E+01 -1.157956894424E+02 3.977450771796E+00 -3.396130642485E+01 1.247014099881E+02
 -2.189943393436E-01 -1.879492317644E+00 -8.236517852298E-01 -3.283363357043E+00 -3.962006539856E+00 -1.731954415613E+01 -2.699472149686E+00 1.347304813426E+01 1.738177039149E+01
 2.418857653380E-01 1.042448892544E+00 -2.245005538142E-01 -8.511998478228E+00 -1.101747938102E+01 1.870454512801E-01 -1.335988274585E-01 5.455262833948E+00 1.680649928641E+00 5.321884188492E+01
 -2.167709061393E+00 -1.613409789198E+00 -7.411654731148E-02 -4.216001865557E+00 1.739070747720E+00 5.402124501448E+00 1.412797004240E+00 -7.063995115205E+00 -4.499198274413E-01 2.455945928798E+01 2.978069741191E+01
 -4.274367730021E-01 5.079889281772E-01 5.374361578585E-01 -1.528394683500E-01 2.196972859471E+00 -4.687632515133E+00 4.093274846433E-01 -1.108559245179E+00 1.126686232146E+00 -1.607483977875E+01 -2.260737247626E+00 1.071656378353E+01
 -1.878153423250E+01 -1.917570044505E+01 2.899330962622E+00 -4.061589208421E+00 -2.692066182482E+00 -5.843586208370E+00 2.380216114960E+00 1.397339604824E+00 1.662223931321E+00 -7.470213593295E-01 5.120743992949E-01 1.242051108416E+00 2.144531653227E+01
 -1.943066804251E+01 -2.397457610887E+01 5.421556396929E-01 2.040553267965E+00 -8.404021878374E+00 -2.428722124606E+00 -7.342208628883E-01 4.795375863407E+00 2.788836893818E+00 -7.701079421876E-01 1.509312581268E+00 -9.399304173986E-01 2.219089899562E+01 3.822637938917E+01
 4.853711697354E+00 3.454395181272E+00 -3.221673255447E+00 -5.945102893132E-01 -3.919782301707E+00 7.348405114732E+00 -9.430868875882E-01 3.169228765385E+00 -1.248475774490E+00 -3.450538612270E-01 -6.598929443614E-01 -4.219036428277E-01 -2.666521790837E+00 7.092117117150E+00 1.143846063747E+01
 -1.494008467257E+00 -1.759782516612E+00 9.822071597508E-01 6.050369890908E+00 -1.610205334404E+00 2.238246549808E+00 -1.426428534738E+00 6.198697909409E-01 -3.799712499887E-01 -2.373875863686E+01 3.238410543729E+00 1.183379165385E+01 -2.676391783455E-01 -5.515016157160E-01 -1.658949647981E+00 2.595736673750E+01
 6.159193309371E-01 -1.625321720168E+00 -1.621179811102E+00 -4.319434612031E+00 -1.023230576101E+00 1.150467430530E+00 -1.303614136511E+00 4.267952925955E+00 -4.490034160719E-01 3.883017215996E+00 -1.023104198610E+00 -1.376288687369E+00 -2.190987944306E+00 -1.411106615887E+01 -1.124033276195E+01 -3.800011619793E+00 2.087125714711E+01
 -1.278642418659E+00 2.004069226309E+00 4.474854003953E+00 2.036645136104E+00 4.892284055249E-01 -1.462415533867E+00 1.347831813247E+00 -3.377945375555E+00 5.022469800907E-01 1.210424328189E+01 -2.138481416121E+00 -8.238841603680E+00 -2.177725738665E+00 -1.102087592854E+01 -1.022050816444E+01 -8.395601655449E+00 8.068415283553E+00 2.212551695820E+01
 -1.037966685415E+01 5.972340344068E+00 1.374510832503E+01 -1.374046816876E+01 -5.131041566932E+00 1.648304841014E+00 -6.063924475201E+00 1.002953607980E+01 5.030042887246E-01 5.087883087184E+00 -1.620993718604E+00 1.163016081177E+00 9.943251726365E-01 -1.241874903183E+00 5.833570161449E-01 -1.213669929889E-01 2.377272721628E+00 -1.739528988123E-01 3.704675455258E+01
 1.861000011281E+00 -4.640814545659E+00 -5.427852605207E+00 -5.067977669909E+00 -1.317936666811E+01 -3.902018961651E+00 4.510425835231E+00 6.592395496879E+00 3.600251470192E+00 -8.904413278953E-01 -2.888445222784E+00 -3.263679905645E-01 9.415453107618E-01 2.314674491129E+00 9.160516227935E-01 -1.186105614702E-01 1.201941274590E+00 -1.105231964912E+00 -5.330694001208E+00 2.761894192921E+01
 7.893584238206E+00 -6.750568831805E+00 -1.614308666124E+01 3.155226669666E+00 -7.754891226886E+00 -1.117311476280E+01 -6.599940036624E-01 8.134893913595E+00 4.216005508664E+00 -5.920381169010E-01 -4.985645994139E+00 1.506403033644E+00 3.731830621922E+00 3.268986524886E+00 1.350555344667E+00 -1.682226960983E+00 2.100487734135E+00 -4.754785430431E+00 -5.360992298703E+00 1.703918898580E+01 3.279512256343E+01
 4.841181634685E-01 -6.744080406409E-01 -2.543388543034E+00 -1.901166012800E+01 -6.394830763877E-01 -1.287613682109E+00 1.663002226018E+00 -8.696438201560E+00 -1.524018278088E+00 2.685495796188E+00 6.830395655176E+00 -9.281122984922E-01 2.858322288870E-01 -4.341758157698E-01 -1.313591055888E+00 -2.380679714106E+00 3.058038903760E+00 -1.806345686919E+00 -1.409906014718E+01 -1.678744237913E+00 -3.778921694812E+00 3.536293254559E+01
 -1.845319159269E+00 -8.026259810467E-01 3.437736138230E+00 -4.832099087038E+00 -1.546523374377E+01 2.241201129302E+00 -8.024083014565E+00 -1.531979265785E+00 -2.330040596008E+00 1.801254313172E+00 3.136387963862E+00 -2.183711535602E-01 -6.152480170196E-02 1.192040669528E+00 -1.534537548122E-01 2.098040730142E+00 -4.630191419907E+00 3.637342164900E+00 -7.511049746412E-01 -1.353866152640E+00 -4.736342969543E+00 1.646194877111E+01 3.887908659589E+01
 2.768668423133E+00 2.446212818332E-01 -3.065436378068E+00 -4.759386810464E+00 7.697615527947E+00 -1.038093702620E+01 -7.982236055468E-01 -6.121685665188E+00 8.101632887101E-01 1.680193187780E+00 2.374099931802E+00 3.584759087789E-01 -1.397971995069E+00 -1.009175890543E+00 -9.237284285690E-01 -1.769632509421E+00 3.713699346120E+00 -3.259573197292E+00 -6.741815434675E+00 -2.934566678056E-01 1.578851379172E+00 4.077448201635E+00 -1.183012191385E+01 1.766443288669E+01
 -1.929293996580E+00 8.615000902832E-01 1.349987265409E+00 -2.277908371309E+01 -3.089381288897E+00 2.334345653998E+01 -2.015828943559E+00 9.466843759259E-01 4.875118218243E+00 2.824299437278E+00 1.567738404458E+00 -5.452340500432E-01 -6.079028734686E-01 -9.569700237806E-01 1.046165480850E+00 -7.344658817193E-01 1.768640289357E+00 -3.280967845068E-01 5.652089826956E+00 -6.282322386896E-01 -6.631500610963E+00 -1.587120745969E+00 -2.297113435917E+00 7.997813757722E+00 2.544666332427E+01
 -1.809613618656E+00 -1.465389964045E+00 1.356774673763E+00 -1.909675553506E+00 -9.459123566052E+00 9.531484561812E+00 2.792077974279E+00 8.795772862267E-01 -8.632217282639E+00 1.082886212261E+00 -7.365792287058E-02 -1.316519954520E-01 3.917382889099E-01 1.249593133812E+00 7.226433525846E-01 -2.431654141278E-01 4.381562612674E-01 -3.166057857948E-01 7.215897217911E-01 1.544703602174E-01 -2.532872863151E+00 -1.296367598325E-01 -7.642626000312E-01 2.086861201829E+00 5.861622052922E-01 8.295893505071E+00
 2.195011047980E+00 7.277102782432E-01 1.020161328947E+00 2.440473154382E+01 2.388656802834E+01 -1.038916871188E+02 8.355541934529E+00 -1.608203039268E+01 -1.838915595295E+00 -2.986914139662E+00 -3.280057361486E+00 1.776254781573E+00 1.412789774734E+00 4.656640201122E-01 -3.923292158828E+00 -8.218828300964E-01 -2.738108949248E+00 1.190363332852E+00 -8.085571101836E+00 -1.273617916566E+00 -9.708771508208E-01 3.819064474521E+00 -3.026170612523E+00 5.044941199397E+00 -3.298093726519E+01 -1.263153899970E+00 1.115986152015E+02
 2.024999663710E+00 3.356022044568E+00 1.859236097356E+00 4.551421202585E+00 6.843982804339E+00 -3.138574647745E+00 3.199339824308E-01 -2.728631083874E+00 -8.000607734732E-01 -3.138215225142E+01 -3.015778903846E+01 4.245284854590E+00 -1.476126433579E+00 -1.345203460529E+00 1.245087410198E+00 -8.514728451743E-01 -7.299090564399E-01 -8.904230381077E-01 -4.971405003012E+00 7.028943819578E+00 4.114459016656E+00 -1.846562438056E+00 -2.173460692322E+00 -5.603830076855E-01 -2.907883956449E+00 -4.745039356435E-01 2.594935267908E+00 3.642078127768E+01
 2.668519571010E+00 8.689643459762E-03 -2.475087224127E+00 8.712356542069E+00 8.235196449203E+00 1.480264557181E+00 -5.449206526700E-01 -5.294967421114E-01 -1.284759801010E+00 -2.385708420874E+01 -2.377632796075E+01 3.477549365043E+00 2.609402913292E-01 -8.533784666599E-01 4.747013486237E-01 4.203205021436E-01 -1.151451349305E+00 1.437218925387E+00 1.697611306472E-01 -1.573751204758E+01 -4.880923948965E+00 -6.753548523883E+00 -3.832337607742E-01 -5.001219124673E+00 -9.655653765196E-01 -4.557964757305E-01 2.002819530700E+00 1.975002520155E+01 3.598600071165E+01
 3.481462951902E-01 -1.850883118015E+00 -1.965787445092E+00 2.235846720695E+00 1.079051159659E+00 9.195530277223E+00 -8.025963529790E-02 -9.410542586132E-01 -1.444891946224E+00 4.323135139211E+00 5.718622921232E+00 -2.014707119983E+00 -3.164504097894E-01 4.374034663732E-01 -2.213725268516E-02 1.281855237563E+00 -2.816250084608E-01 1.122505924668E+00 -9.154678749278E-01 -8.295252595757E+00 -5.765820966185E+00 -3.139084539811E-02 1.393533096473E+00 -1.858088962761E+00 1.554136842332E+00 9.859133510401E-02 -4.410152425662E+00 -8.592702835289E+00 3.369001033117E+00 5.924601691621E+00
 -1.132027909658E+00 -8.803863973809E-01 8.786582245539E-01 2.884647208756E+00 2.450030178750E+00 -2.552144909310E+00 -8.232307317819E-01 2.293622006776E-02 1.848837806944E-01 4.551235823965E-01 4.161838913645E-02 -7.650088140400E-01 8.361232368940E-01 1.233270402971E+00 -2.066080717121E-01 -9.929163772235E-01 6.410689074028E-01 -4.379320101216E-01 5.948390019430E-01 -6.272149397653E-01 -1.894268604250E-01 -1.556297786837E+00 -3.765386489645E-01 -4.967102074074E-01 -1.361472477676E+00 -1.007859120768E+00 2.093231293295E+00 1.184668012883E-01 1.391955230630E-01 1.931513657111E-01 9.767454518982E-01
 3.228534692282E+00 2.480944704102E+00 -2.964836888173E+00 7.063564204877E+00 1.153812282035E+01 4.176026361070E+00 2.202538647147E+00 -9.054640764791E+00 -8.746967175981E-01 -1.289215896061E+00 2.734715046544E-01 1.793955844592E-01 -1.574257517204E+00 -1.944333515546E+00 1.443243750185E-01 1.706635495168E+00 -3.214942185971E+00 2.322866465248E+00 -5.194790833366E+00 -8.241891525724E-02 1.097688676077E+00 -7.343948674054E+00 -1.827612230532E+01 8.138761972528E+00 2.206536998488E+00 1.200539982135E+00 5.803772750686E-01 6.305233972366E-01 -1.342690001406E+00 -7.273880311123E-01 -1.636120514513E+00 1.842206867705E+01
 -3.309752233659E+00 -1.202706960552E+00 2.312448434746E+00 -8.785715396829E+00 1.872472179801E+00 4.753028149752E+00 1.529177236303E+00 -3.561836805295E+00 -1.361393143728E+00 2.480794615469E-01 3.540039840056E-01 -6.587350159031E-01 1.454029743717E+00 8.035406990545E-01 -1.557024195909E-01 -1.627835747050E+00 2.673468839862E+00 -1.479363270053E+00 3.635009056862E+00 -9.316933763171E-01 -2.639252858102E+00 5.316869408584E+00 1.158468847139E+01 -5.969100669858E+00 3.190906061687E-01 -9.198532980859E-01 -5.595411394906E+00 -7.685834440551E-02 1.400435338723E+00 1.238948225081E+00 1.297906208762E+00 -1.207251907259E+01 9.554533962562E+00

