#BIOSYM hessian 1
@Type: Hessian Update
@Units
 distance: 	A
 energy: 	Kcal/Mol
#header
@natom 11

#label
R1      G2      B3      B4      B5      C6      B7      B8      B9      R10     R11

#element
Rb Ge Br Br Br Cs Br Br Br Rb Rb

#matrix
33
 1.090805673890E+01
 -3.963200030432E+00 7.756037095532E+00
 -7.292933141831E-01 4.564567448547E-01 4.812115643109E+00
 8.120550214013E+00 9.931194087412E+00 -2.644859801281E+00 1.268361402467E+02
 -1.534265706540E+01 4.751049365463E+00 -5.752842653056E+00 -3.986997544881E+01 1.770857151087E+02
 -3.954524651103E+00 -1.298884196446E+01 -4.534324498676E+00 1.655267110188E+01 1.089853675903E+00 1.102211520044E+02
 -1.468703137060E+00 9.976987441451E-01 1.763734665092E+00 -5.155820374428E+00 -7.354188536494E+00 -4.313940671850E+00 4.156136186189E+00
 3.316956356240E+00 -4.936159728740E+00 1.361264351891E+00 -4.702595290720E+00 1.255030588836E+00 9.143135702743E+00 5.583880209488E-02 8.670680035702E+00
 7.924121615895E+00 -6.904777213815E-01 -1.251667914190E+00 -5.823951600729E+00 -8.853737019435E-01 -1.527733228074E+01 2.607947464280E+00 3.703078804319E+00 2.104273189835E+01
 -5.699389195800E+00 -5.147119019245E+00 -4.036508780332E+00 -3.088627957011E+01 4.030114334953E+01 7.959703758933E+00 -1.685314200923E+00 4.943696132439E+00 2.023380601353E+00 3.555863612157E+01
 5.378884056714E+00 8.033994421644E+00 6.378090940850E+00 5.876269448586E+01 -1.334378428354E+02 -8.865414812768E+00 1.295371380457E+00 -1.075734844039E+01 -6.054767301500E+00 -4.753874499492E+01 1.438263961005E+02
 -5.452981495330E+00 4.351680117898E+00 -2.749218203213E+00 9.145819495613E+00 -9.710820058742E-01 -7.887973048404E+00 1.607205230140E+00 -4.741173408660E+00 1.322011113345E+00 7.685053491830E+00 3.210415127853E+00 1.786903211847E+01
 -4.332508401414E+00 1.097287579382E+00 -8.842806830621E-01 7.493222720496E+00 -4.582033143280E-01 5.364139468171E+00 -1.080671851571E+00 1.469308718271E+00 -1.269372388900E+00 5.805631585940E+00 8.430907095168E+00 1.008383872544E+01 1.550087094937E+01
 7.041683555838E+00 -5.726498387834E+00 3.231236918604E+00 -1.069657208575E+01 -1.183376966861E+01 -6.526602802250E+00 2.441572246045E-01 4.320905233893E+00 7.441071682188E+00 -4.241527574791E-01 2.722417480308E+00 -6.371138543821E+00 -4.583830715066E+00 1.248204277111E+01
 -1.907195694933E-01 -3.152900685155E+00 -7.274382962061E-01 3.933229516467E+00 1.841777692854E+00 1.925099399314E+01 -3.916449288150E-01 4.689235499592E+00 1.298654778966E+00 4.759922704813E+00 -4.078950256005E+00 1.253225417706E+00 5.782173929993E+00 -1.281948975773E-01 6.410412358115E+00
 2.668149325762E+00 -3.078243084186E+00 -2.820540097640E-02 -1.919868179507E+01 1.147480109045E+01 -7.729521772129E+00 5.262842921517E-01 2.924379754629E+00 1.645031757315E+00 2.680183843115E+00 -2.398036005079E+01 -9.466423794990E+00 -1.320090204472E+01 4.729436755039E+00 -4.107107345132E+00 2.030899835829E+01
 -5.022332518423E+00 2.526965881182E+00 -2.144465661492E+00 3.012676016258E+00 6.103818881342E+00 5.504351760667E+00 6.760316451200E-01 -7.123022201671E-01 -4.436118647722E+00 4.099902600681E+00 -6.416456895531E+00 5.040050292442E+00 3.444183599225E+00 -7.907695810012E+00 1.069622045998E+00 -6.925080457016E-01 6.586888290341E+00
 1.020800531207E+00 8.778945604866E-01 7.375743255120E-01 -6.469454325362E+00 7.654607993114E+00 -5.095419369174E+00 -1.223764083690E+00 -3.432552954397E+00 -3.758549632813E+00 -4.336378260502E+00 -3.123335486279E+00 -6.955678640288E+00 -7.590946126945E+00 3.954686230958E-01 -4.946758347185E+00 3.060316390121E+00 -2.421615943355E+00 8.616036508500E+00
 -5.920630021528E+00 7.933470862602E-01 2.542244159538E+00 -4.448710771270E-01 1.838298236251E+01 1.482132594267E+01 2.836419683542E-01 1.182181457188E+00 -3.722684139829E+00 5.897835153475E+00 -1.063268560079E+01 5.695471001303E-01 1.295329379043E+00 -9.788142255884E-01 2.984122242756E+00 -8.416713119472E-01 9.749093893398E-01 -1.203414302910E+00 9.863070847378E+00
 5.768297434232E-01 -3.362047770619E+00 3.260201077302E-01 6.023971415397E+00 -1.761545678661E+01 1.178078777817E+01 2.868930787508E+00 2.949317218557E+00 -1.557212776151E+00 -2.516384662387E+00 3.085591103067E+00 4.252096400816E-01 2.263863260930E-01 -1.408291474861E-02 2.935855324950E+00 8.631342726098E-01 1.877038760809E+00 -3.743355572376E+00 -6.615161783673E-01 8.358388994669E+00
 -8.431509089967E-02 4.452485793327E-01 5.026992355361E-01 3.770471670050E+00 -4.200394757658E+00 -1.992531637313E+00 -7.858788571549E-01 3.142993190362E+00 -2.190309126315E+00 3.530715670828E+00 -4.801761321595E-01 2.185074937314E+00 3.062835828037E+00 -1.692730620429E+00 7.941339042914E-01 1.678023930628E+00 3.306069604023E+00 -3.193846357278E+00 2.173759857646E-01 6.106374985743E-01 7.700142989383E+00
 6.668661746435E+00 7.928514675806E-01 6.705912044348E+00 -6.757239130502E+01 -3.897413174308E+01 -4.326174944720E+01 7.147598533953E+00 -6.612366873809E+00 7.257004897169E+00 -2.339884922168E+01 2.713774679758E+01 -1.506846144066E+01 -1.457029084322E+01 9.289341820500E+00 -1.434453257635E+01 3.764128935938E+00 -9.791989760824E+00 1.725758433981E+01 -1.603292312819E+01 -6.009528445975E+00 -8.270698014684E+00 1.205694211320E+02
 6.182064780024E+00 -6.467776679322E+00 -1.973942093120E+00 -3.460634820200E+01 -2.495096422956E+01 -1.350663528791E+01 1.685997669966E+00 8.453535770180E-01 5.113047102406E+00 5.458383612678E+00 -1.286562496088E+00 -5.578780265817E+00 -9.845221735638E+00 7.522895499246E+00 -5.137592040887E+00 1.226194205024E+01 -2.614132184011E+00 3.698242765316E+00 -9.665286465517E+00 1.360183382130E+00 -1.322912790388E-01 3.156503661774E+01 2.865980794597E+01
 3.129744827970E+00 -1.761612901990E+00 2.398527312904E+00 -2.437035763329E+01 -2.618762934178E+01 -2.710397338684E+01 3.688374933110E+00 -1.144411957669E+00 2.870215970955E+00 -7.945575009500E+00 9.218654466829E+00 -1.657889776745E+00 -7.079294455127E+00 6.679867735547E+00 -6.447994022418E+00 1.221123720431E+01 -2.405561118543E+00 1.430772396765E-01 -7.392106133428E+00 2.660950364558E+00 1.931678740153E+00 3.033536560498E+01 1.665727188120E+01 2.644912816618E+01
 1.875149472107E-01 -7.708678309428E+00 -1.102036251858E+00 -6.371071834628E+00 -6.513478438658E+00 1.566523926635E+01 -2.261536467386E+00 1.156311982032E+00 -1.125038613952E+00 -3.080439077475E+00 8.385061062553E+00 -5.249273642070E-01 5.038632409070E+00 6.469613585450E+00 5.089810418299E+00 -5.255707171311E-02 -4.546496653974E+00 -5.909161390768E+00 1.381254490816E-01 4.063690735531E+00 -5.258792999150E+00 -9.424225864416E+00 -1.965034698663E+00 7.440039361724E+00 3.516318305157E+01
 -2.317286248922E-03 -1.354204093383E+00 2.624792686437E+00 7.257593989662E+00 -2.789776143832E+01 1.911881962968E+00 3.567481710382E+00 -3.897995165447E+00 -4.785599876846E+00 -4.209729951368E+00 1.130800164632E+01 9.356142955102E+00 -1.257935400949E+00 1.269169647371E+00 -1.212792961246E+00 -2.490584863897E+00 2.571804948763E-01 -1.926393724246E+00 1.212308559769E+00 6.281034265888E+00 2.273241244194E+00 3.355426004809E+00 1.015346167330E+00 9.997776836271E+00 1.480773473128E+00 2.927790513515E+01
 -3.392156288602E+00 1.389413372746E+01 8.744796295811E-01 -8.238459509659E+00 5.877899267311E+01 -8.125102123944E+01 -5.058933544575E+00 -1.126814038265E+01 2.588483279259E+00 1.068517535829E+01 -1.236130042531E+01 1.018604128930E+00 3.238682544009E+00 -2.457437604854E+00 -1.505194549720E+01 -1.351687678891E+01 -6.138119328495E+00 1.740841814726E+01 -7.580967304580E+00 -2.362141369302E+01 -8.833007433059E+00 2.398541679387E+01 -2.375137091302E+00 -1.912454762148E+01 -2.990890790771E+01 -3.381562779524E+01 1.768314100008E+02
 -7.003137458081E+00 4.220780842713E+00 -1.355821743100E+00 -1.470964094071E+01 2.391852948291E+01 6.443046484013E-01 1.482762121040E-01 -3.616919394711E+00 -6.445879541176E+00 9.641237022198E+00 -1.867525727884E+01 -5.631339166334E-01 -3.690898480318E+00 -7.955393243499E+00 -3.549288287811E+00 2.135019155650E+00 5.154440637683E+00 6.441265144888E+00 2.862543075965E+00 -4.420688161243E+00 4.078982373899E-01 6.339398301885E+00 3.032392778729E+00 -6.759825218933E+00 -1.755048327564E+01 -5.381361474442E+00 2.227967641234E+01 1.851202716296E+01
 4.404378870559E+00 -2.012751507147E+00 -2.024864771838E+00 3.393670727316E+00 1.439205422384E+01 3.169425432046E+00 -1.926287570606E+00 4.148735698572E+00 6.711248273181E+00 2.472872727768E+00 -1.199260749033E+01 -4.363898860430E+00 2.669349757693E-01 2.013622510886E+00 2.693967945698E+00 4.684056068136E-01 -1.865572279102E+00 -2.075774113218E-01 -1.250151278371E+00 -1.249441467167E+00 -1.864721255518E+00 -6.851803311269E+00 -1.682164253703E+00 -6.719410417403E+00 6.973023858901E-01 -1.128189605764E+01 1.070518537463E+01 -1.722972704625E+00 8.203126302680E+00
 1.061678615004E+01 -5.431090755609E+00 -4.126011920040E-02 8.259617739235E+00 -3.025983962126E+01 8.583308278037E+00 2.154366334570E+00 4.803785765628E+00 8.101411404177E+00 -1.323195087068E+01 7.146734812838E+00 -6.366321843730E+00 -9.526247086769E+00 7.425189364922E+00 1.126227371873E+00 1.219739618784E+01 -2.791722993523E+00 -3.335221414980E+00 -4.008894460250E+00 7.901498020949E+00 1.878017349038E+00 3.667658002086E+00 7.770063887238E+00 1.483792234297E+01 8.643359259069E+00 1.036389485875E+01 -5.640625743272E+01 -1.334344082246E+01 -2.234398640614E-01 3.066481878661E+01
 -4.128564758435E+00 2.064080635799E+00 -2.308848941862E-01 1.888843715930E+00 1.443517826136E+01 -1.747647644123E+00 -6.098911613844E-01 -1.167916436530E-01 -3.070560051427E+00 5.166747539692E+00 -8.563616952994E+00 1.984463968662E+00 1.741584577326E+00 -3.135469914045E+00 3.403389526965E-02 1.211048312539E+00 2.691183090615E+00 -1.046847915850E+00 2.899549665494E+00 -1.014825832591E+00 1.732363639191E+00 -1.349052828773E+01 -4.103926407571E+00 -3.257603481814E+00 -1.787142265676E+00 -3.531654760845E+00 7.507350235525E+00 3.315659223990E+00 4.764957075499E-02 -5.428650432686E+00 3.792693438260E+00
 -2.570290462293E+00 7.913914032242E-01 -2.481746570860E+00 1.493690305374E+00 1.214812679031E+01 9.288058554886E+00 -2.111031857178E+00 -1.886216797840E+00 -4.558895836549E+00 2.560132962303E+00 -5.085582594142E+00 -3.574250487742E-01 1.210182872073E+00 -4.849006361611E+00 4.799723317779E-01 -2.480403485217E+00 2.164267080274E+00 2.228617149963E+00 6.427248935697E-01 -1.670524785977E+00 -1.407876071682E+00 -3.900582573258E+00 -2.401986729004E+00 -6.995895547018E+00 -1.519065123861E+00 -4.976780602150E+00 8.658864545675E+00 5.446448515319E+00 1.326894319114E+00 -6.705073475872E+00 1.228193953168E+00 4.439418277803E+00
 -8.887462715505E+00 3.999510298564E+00 -2.148711515630E-02 5.885273347083E+00 -1.108069953410E+00 5.087121184978E+00 -4.746654110749E-02 -6.257214611157E+00 -1.474564949099E+01 -7.093538665029E+00 9.010049065648E+00 1.969133796612E+00 -1.181529754850E+00 -7.996729855425E+00 -2.959511661078E+00 4.056129631919E+00 5.417509990002E+00 3.803675407719E-01 2.773450910140E+00 2.281023306530E+00 1.217947398250E+00 -8.263500203383E+00 -4.534247578084E+00 5.703855034646E+00 6.990416222200E+00 5.212683813857E+00 -1.805461596197E+01 2.244245087096E+00 -7.875914444979E+00 9.573552779197E-01 3.523982681438E+00 1.851399968454E+00 2.046548399602E+01

