#BIOSYM hessian 1
@Type: Hessian Update
@Units
 distance: 	A
 energy: 	Kcal/Mol
#header
@natom 11

#label
R1      G2      I3      C4      B5      C6      I7      I8      I9      R10     R11

#element
Rb Ge I  Cl Br Cs I  I  I  Rb Rb

#matrix
33
 4.522900471950E+00
 -3.487958064979E-01 5.722635339682E+00
 -1.468665633481E+00 3.217316224756E+00 4.944492213617E+00
 8.213211561423E+00 -7.272539067684E+00 -1.419075502038E+00 1.484240895350E+02
 -9.686986267490E-01 1.287803132686E+01 5.627176936777E+00 -5.798420546288E+01 1.999977143455E+02
 -8.738225039649E+00 -8.846618048939E+00 -5.578368925218E+00 -3.311361952407E+01 1.288174018580E+01 1.262490139631E+02
 8.637601413622E-01 -9.360382084963E-01 -3.157452856290E+00 -1.215044295041E+01 -7.264585136308E+00 -1.372495097998E+00 1.225191070318E+01
 -4.790276801420E+00 -8.370145268659E+00 -1.601283808208E-02 1.627622972927E+01 -5.200229993383E+01 7.149129439822E+00 -4.914487030470E+00 4.931902531073E+01
 -6.381184274290E-01 1.122679821707E+00 3.123002095131E+00 -4.171167225040E+00 -7.630844279497E+00 -1.099281108877E+01 -4.922022202783E-01 6.522435090159E+00 9.245484237323E+00
 -4.082939032576E+00 -1.220192100643E+00 2.487193084098E+00 -3.124862229854E+01 3.195902824473E+01 2.649511148461E+01 -3.836367384022E+00 4.523789102615E+00 6.449075667007E+00 3.942770276233E+01
 7.807012802375E+00 -5.155029359567E+00 -1.055185444222E+01 5.874949530279E+01 -1.216206572314E+02 -7.321155560418E+01 1.256109279263E+01 5.570302644067E+00 -7.723103750089E+00 -9.080038435312E+01 2.814289178075E+02
 -1.475454734792E+00 -1.654235676241E+00 -1.361488557070E+00 4.591136238106E+00 -1.541544363055E+01 -9.147562268761E+00 2.455309162115E+00 2.403900161457E+00 4.367890585488E+00 8.095494336628E+00 -8.593940368526E+00 1.431973608582E+01
 -3.909143567249E+00 -2.449357001113E-01 2.632740829169E+00 3.180166477379E+00 -9.373432272488E+00 -4.929022232451E-01 1.617776669069E+00 5.811739177610E+00 1.722986104790E+00 7.469596679818E+00 -1.634488227279E+01 6.418930009868E+00 1.088141662126E+01
 1.699090233554E+00 2.918622662641E+00 -8.892448558756E-01 -3.385699077703E+00 6.893298716616E+00 -1.201914552283E+01 -1.427553404745E+00 -1.713394209959E+00 9.531084132139E-02 -1.294921920607E+01 3.620794752683E+01 -5.800410547994E+00 -9.504115441960E+00 1.579779682503E+01
 -1.892774692603E+00 -1.696213928595E+00 3.181395673867E-01 -6.310158044903E+00 -1.075243677839E+00 1.188404437476E+01 6.170975639050E-01 4.980148390127E+00 2.232955474229E+00 7.799597939061E+00 -1.464572750300E+01 1.590083714769E+00 2.428444478933E+00 -3.517362145620E+00 3.103126743791E+00
 2.807900235600E+00 4.887752894709E+00 -1.421140581588E+00 -3.354385690745E+01 5.737377072652E+01 7.154668159477E+00 -2.973783655324E+00 -1.911311040693E+01 -4.575177362572E+00 1.782539938893E+00 -1.055044404027E+01 -9.968984203225E+00 -1.385735037108E+01 1.489583031280E+01 -3.241172194202E+00 3.536954167398E+01
 -5.063284349569E+00 -4.187604239947E+00 4.273967463785E+00 -2.411106435820E+00 -5.786401529599E-01 2.119132600687E+01 1.706420645850E+00 9.746179855451E+00 7.389391618329E+00 3.204594585395E+01 -8.269589047047E+01 1.245694221563E+01 1.734473369883E+01 -2.549983086509E+01 9.237356083734E+00 -2.412800669265E+01 5.126985078992E+01
 3.489736491787E-01 -7.426617663349E-01 -2.591905244262E+00 5.143240402334E+00 -2.341701161288E+01 -2.395740833126E-01 2.593063612658E-01 3.790472102086E+00 -5.468691438449E+00 -1.450755848451E+01 3.114479816713E+01 -3.899390810757E+00 -2.767187069611E+00 2.918798283717E+00 -3.021083847730E+00 -2.155798751958E+00 -1.270825068861E+01 1.141446161165E+01
 -1.694191243644E+00 1.288625958836E+00 7.198855025674E-01 -5.480480354446E+00 1.307947809418E+01 7.582888748450E+00 -5.021729235742E+00 -1.653351346925E+00 6.235765535593E-01 1.158124479386E+00 -4.051054782363E+00 -1.168431322637E+00 -4.103609342071E+00 5.293644981400E+00 -4.078990226705E-03 8.730553952600E+00 -5.998394251750E+00 -7.172500586793E-01 7.030517703956E+00
 1.411988106268E-01 -3.604873135712E+00 1.319880877090E+00 7.443568301502E+00 -1.878453629073E+01 7.910540804438E+00 3.639463819415E+00 8.017373361369E+00 4.735903054225E+00 1.358860021826E+01 -3.763900329195E+01 7.738652945826E+00 8.715991815660E+00 -1.433879619540E+01 4.449378896824E+00 -1.636501505134E+01 2.782787844761E+01 -5.646511698963E+00 -5.770500444717E+00 2.043725725079E+01
 6.963329508356E-03 1.218218865942E+00 -1.011783396470E+00 1.415417359331E+01 -7.218325933621E+00 -1.429840468057E+01 1.845203269243E+00 3.635141549693E+00 -1.223360297397E+00 -7.134857895711E+00 1.978076461432E+01 1.928738947108E+00 2.118928993908E+00 3.542540626050E+00 -2.116413992908E+00 -2.746912205546E+00 -7.239558940947E+00 1.855250138015E+00 -2.510782170121E+00 -3.655138907215E+00 8.935562839994E+00
 -1.672178595755E+00 8.047215530742E-01 1.137916278651E+00 2.065858384986E+00 -8.780353586270E+01 -3.099436966618E+01 7.316026926401E+00 1.541153835518E+01 2.946847975335E-01 -3.179831657531E+01 8.797023363123E+01 -5.713627293982E+00 5.625794690179E+00 -3.567715542429E+00 -3.154164317577E+00 -3.336957968436E+01 -8.824213929303E+00 2.308033439022E+01 -1.266349956111E+01 -4.051245547930E+00 4.260931578635E+00 1.115459084950E+02
 2.404768436158E+00 4.384137429169E+00 1.702798729014E+00 -1.198376182494E+01 4.878364825018E+00 8.025231878542E+00 -7.209574992819E+00 -1.496032544449E+01 -3.482947337011E+00 9.230054795046E+00 -2.821237506345E+01 -2.295197830423E+00 -1.133839678674E+00 -5.334450785337E+00 -1.820370146380E+00 5.714670519155E+00 5.978700483373E-01 2.181838154043E+00 -7.547425113390E-01 -8.733227283233E-01 -4.368379247351E+00 5.986775276912E+00 3.170365673358E+01
 2.641804721163E+00 4.498936359057E+00 7.350231544146E-01 -1.849663996185E+01 4.934850802797E+00 -2.189996345364E+01 7.860740313309E-01 -9.914889889555E+00 1.010198122260E+00 -7.280302094755E+00 2.280584612620E+01 -2.664741024621E+00 -5.798580092503E+00 8.736791701567E+00 -3.781839019150E+00 1.144809119051E+01 -1.667685636108E+01 2.321975485306E+00 1.244052512932E+00 -8.853041771691E+00 3.076560637517E-01 6.937941277694E+00 5.325576357268E+00 1.270103956840E+01
 -7.832755510147E+00 -2.310808877746E+00 1.125957832230E+00 -4.887959045908E+01 5.567056878863E+00 3.963754226089E+01 -2.741836455599E-02 8.287385133291E+00 2.965302058538E+00 1.852191547937E+01 -3.105329398588E+01 2.806039208845E+00 1.909733145526E+00 -1.175978525416E+00 6.495856915280E+00 8.464346974542E+00 1.028663873651E+01 -4.334365639042E+00 7.935731241874E+00 3.556161046183E+00 -9.360260172457E+00 -2.212313344340E+01 -3.869138014243E+00 -1.416283184138E+00 4.010663949502E+01
 -6.050357755235E+00 -2.970731296574E-01 -5.128345019247E+00 -2.938022266989E+01 -2.954233477527E+01 3.187987672028E+01 4.658632809734E+00 1.794576696502E+01 -1.858217405702E+00 -3.354539745259E+00 -2.653380173790E-01 2.304526722698E+00 -3.002050196117E+00 6.953219329060E+00 1.234387070371E+00 4.633204160084E+00 -9.968508412326E+00 1.197174440871E+01 6.390976704105E+00 -2.650980578303E+00 1.580257143408E+00 4.193768407742E+00 -7.614964582915E+00 -3.735724958881E-01 2.321332138901E+01 5.887133495898E+01
 1.289654157218E+01 3.671721089948E+00 -6.218943455243E-01 3.956414177331E+01 3.135628258057E+01 -9.378993111487E+01 -3.091298413058E+00 -1.983508496171E+01 -5.212397901956E+00 -3.063572220839E+01 6.570366711484E+01 -6.229869489870E+00 -1.053350025518E+01 1.352021212754E+01 -1.421021800834E+01 1.196977918222E+01 -3.369084411574E+01 5.040404018043E+00 -4.927803334964E+00 -1.766077734069E+01 8.955935001992E+00 1.138336329428E+01 -2.367175068231E+00 1.819733351137E+01 -4.393396539953E+01 -4.043737155617E+01 1.093560202757E+02
 1.774971573362E-01 1.508273905720E-01 -1.201584790605E+00 -6.547899949470E+00 1.407386780045E+01 3.203078174527E+00 7.017228442553E-01 -4.181325006259E+00 -3.041669124618E+00 -5.895844185884E-01 4.865811024825E-01 -3.084447923575E+00 -1.816998145415E+00 1.569827628452E+00 -5.962285156880E-01 5.566261059449E+00 -4.278909209349E+00 6.203172248260E-01 1.384910054678E-01 -4.215228563387E+00 3.315919008875E-01 -1.587028425849E+00 6.871513523239E-01 1.017377159633E+00 -9.474953570676E-01 -1.424249855069E+00 4.498313859432E+00 2.431010519414E+00
 2.632291170943E+00 -2.178255426705E+00 1.460274680273E+00 1.651781092548E+01 6.191492044102E-01 5.495155819366E+00 -1.353902181508E+00 -6.683339938581E+00 1.993787894021E+00 1.585659064359E+01 -4.566560616815E+01 6.553484739382E+00 6.582927037383E+00 -1.616842859020E+01 2.769913161012E+00 -1.229095530283E+01 2.678539897711E+01 -7.601333362818E+00 -5.130970665753E+00 1.676959183595E+01 -5.364883898488E+00 -8.682688262522E+00 1.134234398420E+01 -7.920155804954E+00 -6.332381762325E+00 -2.032512941932E+01 -5.065459425188E+00 -2.486947835154E+00 2.512129371423E+01
 1.999235679431E+00 -4.508981605400E-01 1.485762812348E-01 7.156743458570E+00 -5.105368650308E+00 1.029628852486E+01 -2.038569764354E-01 -3.715037942540E+00 -2.778276995641E-01 8.256608060037E-01 -8.279031909500E+00 -1.658096689759E+00 -9.766889700980E-01 -3.137066405550E+00 6.595442763376E-01 -1.937322756055E+00 4.158571917007E+00 -5.753739508755E-01 -8.520922564113E-01 4.595667581134E+00 -3.017837608648E+00 -1.440476996157E+00 4.922350654940E+00 -2.305596851224E+00 -1.953986370348E+00 -3.189879380900E+00 -7.108722014524E+00 -9.455135301327E-01 6.938586439577E+00 4.896564415118E+00
 2.605938381700E+00 5.201381963986E+00 5.642258372883E-01 -2.403243303935E+01 4.134125561638E+01 -9.361677276822E+00 1.258544305785E+00 -1.565813090596E+01 8.627091785095E-01 3.195950369238E+00 -1.477435619708E+01 -2.955963477351E+00 -6.997382857413E+00 8.551888042124E+00 -2.142420141979E+00 2.102342678315E+01 -1.067982406668E+01 -4.970012024019E+00 3.970091353733E+00 -6.682994404272E+00 -9.649802216581E-01 -2.333985221080E+01 9.276366424248E-01 8.916464439983E+00 2.872026797915E+00 1.215167508909E-01 1.281014992971E+01 2.474023710467E+00 -5.311773767299E+00 -1.671702088367E+00 1.696966640558E+01
 2.537051885812E+00 -2.110446198110E+00 -1.015957756275E+00 1.343043027988E+01 -2.738090034294E+00 -4.556816791819E-01 5.405308867190E-01 -6.869143341113E+00 -1.164395547463E+00 1.120326546922E+00 -1.953268376030E+00 2.301721268743E+00 1.147863832661E+00 -5.715984414192E+00 8.373379936975E-02 -5.057697119235E+00 6.703296022356E+00 -1.891881986081E+00 -2.693711735678E+00 4.839411324685E+00 -1.910635871788E+00 -1.437638079259E+00 4.089065584217E+00 -2.563485023728E+00 -6.168962018246E+00 -1.310599233789E+01 4.804829554827E+00 -3.815948050637E-01 1.038298182705E+01 3.262105856679E+00 -3.036599674511E+00 6.478169943321E+00
 -3.680280423507E+00 -3.382447807602E-01 1.896207156762E+00 -7.098775207728E+00 5.062187278749E+00 7.517268752473E+00 2.354315176200E+00 4.999798898544E+00 3.195557911701E+00 7.406307365957E+00 -1.642986244499E+01 2.754699507655E+00 5.246828193965E+00 -3.450424102327E+00 3.341660716855E+00 -4.526030477060E+00 1.160795480103E+01 -4.836071877623E+00 1.003481553115E-02 5.065445559019E+00 -3.153430148647E-01 -5.792533343110E+00 -7.823726144410E+00 -4.621085556867E+00 7.968162489730E+00 2.016593792432E+00 -1.437665993200E+01 -8.012344346876E-01 7.406297578164E-01 -1.057518682955E+00 -1.086794155292E+00 -1.450352615103E+00 6.501285018862E+00

